+ 0.1 1 2 cbr 1000 ------- 0 1.0 5.0 0 0
- 0.1 1 2 cbr 1000 ------- 0 1.0 5.0 0 0
r 0.114 1 2 cbr 1000 ------- 0 1.0 5.0 0 0
d 0.114 2 3 cbr 1000 ------- 0 1.0 5.0 0 0
+ 0.14 1 2 cbr 1000 ------- 0 1.0 5.0 1 1
- 0.14 1 2 cbr 1000 ------- 0 1.0 5.0 1 1
r 0.154 1 2 cbr 1000 ------- 0 1.0 5.0 1 1
+ 0.154 2 3 cbr 1000 ------- 0 1.0 5.0 1 1
- 0.154 2 3 cbr 1000 ------- 0 1.0 5.0 1 1
+ 0.18 1 2 cbr 1000 ------- 0 1.0 5.0 2 2
- 0.18 1 2 cbr 1000 ------- 0 1.0 5.0 2 2
r 0.194 1 2 cbr 1000 ------- 0 1.0 5.0 2 2
+ 0.194 2 3 cbr 1000 ------- 0 1.0 5.0 2 2
- 0.194 2 3 cbr 1000 ------- 0 1.0 5.0 2 2
+ 0.22 1 2 cbr 1000 ------- 0 1.0 5.0 3 3
- 0.22 1 2 cbr 1000 ------- 0 1.0 5.0 3 3
r 0.234 1 2 cbr 1000 ------- 0 1.0 5.0 3 3
+ 0.234 2 3 cbr 1000 ------- 0 1.0 5.0 3 3
- 0.234 2 3 cbr 1000 ------- 0 1.0 5.0 3 3
+ 0.26 1 2 cbr 1000 ------- 0 1.0 5.0 4 4
- 0.26 1 2 cbr 1000 ------- 0 1.0 5.0 4 4
r 0.274 1 2 cbr 1000 ------- 0 1.0 5.0 4 4
+ 0.274 2 3 cbr 1000 ------- 0 1.0 5.0 4 4
- 0.274 2 3 cbr 1000 ------- 0 1.0 5.0 4 4
r 0.280667 2 3 cbr 1000 ------- 0 1.0 5.0 1 1
h 0.280667 3 6 cbr 1000 ------- 0 1.0 5.0 1 1
+ 0.3 1 2 cbr 1000 ------- 0 1.0 5.0 5 5
- 0.3 1 2 cbr 1000 ------- 0 1.0 5.0 5 5
r 0.314 1 2 cbr 1000 ------- 0 1.0 5.0 5 5
+ 0.314 2 3 cbr 1000 ------- 0 1.0 5.0 5 5
- 0.314 2 3 cbr 1000 ------- 0 1.0 5.0 5 5
r 0.320667 2 3 cbr 1000 ------- 0 1.0 5.0 2 2
h 0.320667 3 6 cbr 1000 ------- 0 1.0 5.0 2 2
+ 0.320667 3 6 cbr 1000 ------- 0 1.0 5.0 1 1
- 0.320667 3 6 cbr 1000 ------- 0 1.0 5.0 1 1
d 0.320671 4 6 cbr 1000 ------- 0 1.0 5.0 1 1
+ 0.34 1 2 cbr 1000 ------- 0 1.0 5.0 6 6
- 0.34 1 2 cbr 1000 ------- 0 1.0 5.0 6 6
r 0.354 1 2 cbr 1000 ------- 0 1.0 5.0 6 6
+ 0.354 2 3 cbr 1000 ------- 0 1.0 5.0 6 6
- 0.354 2 3 cbr 1000 ------- 0 1.0 5.0 6 6
r 0.360667 2 3 cbr 1000 ------- 0 1.0 5.0 3 3
h 0.360667 3 6 cbr 1000 ------- 0 1.0 5.0 3 3
+ 0.360667 3 6 cbr 1000 ------- 0 1.0 5.0 2 2
- 0.360667 3 6 cbr 1000 ------- 0 1.0 5.0 2 2
r 0.360671 6 5 cbr 1000 ------- 0 1.0 5.0 1 1
d 0.360671 4 6 cbr 1000 ------- 0 1.0 5.0 2 2
+ 0.38 1 2 cbr 1000 ------- 0 1.0 5.0 7 7
- 0.38 1 2 cbr 1000 ------- 0 1.0 5.0 7 7
r 0.394 1 2 cbr 1000 ------- 0 1.0 5.0 7 7
+ 0.394 2 3 cbr 1000 ------- 0 1.0 5.0 7 7
- 0.394 2 3 cbr 1000 ------- 0 1.0 5.0 7 7
+ 0.400667 3 6 cbr 1000 ------- 0 1.0 5.0 3 3
- 0.400667 3 6 cbr 1000 ------- 0 1.0 5.0 3 3
r 0.400667 2 3 cbr 1000 ------- 0 1.0 5.0 4 4
h 0.400667 3 6 cbr 1000 ------- 0 1.0 5.0 4 4
r 0.400671 6 5 cbr 1000 ------- 0 1.0 5.0 2 2
d 0.400671 4 6 cbr 1000 ------- 0 1.0 5.0 3 3
+ 0.42 1 2 cbr 1000 ------- 0 1.0 5.0 8 8
- 0.42 1 2 cbr 1000 ------- 0 1.0 5.0 8 8
r 0.434 1 2 cbr 1000 ------- 0 1.0 5.0 8 8
+ 0.434 2 3 cbr 1000 ------- 0 1.0 5.0 8 8
- 0.434 2 3 cbr 1000 ------- 0 1.0 5.0 8 8
r 0.440667 2 3 cbr 1000 ------- 0 1.0 5.0 5 5
h 0.440667 3 6 cbr 1000 ------- 0 1.0 5.0 5 5
+ 0.440667 3 6 cbr 1000 ------- 0 1.0 5.0 4 4
- 0.440667 3 6 cbr 1000 ------- 0 1.0 5.0 4 4
r 0.440671 6 5 cbr 1000 ------- 0 1.0 5.0 3 3
d 0.440671 4 6 cbr 1000 ------- 0 1.0 5.0 4 4
+ 0.46 1 2 cbr 1000 ------- 0 1.0 5.0 9 9
- 0.46 1 2 cbr 1000 ------- 0 1.0 5.0 9 9
r 0.474 1 2 cbr 1000 ------- 0 1.0 5.0 9 9
+ 0.474 2 3 cbr 1000 ------- 0 1.0 5.0 9 9
- 0.474 2 3 cbr 1000 ------- 0 1.0 5.0 9 9
+ 0.480667 3 6 cbr 1000 ------- 0 1.0 5.0 5 5
- 0.480667 3 6 cbr 1000 ------- 0 1.0 5.0 5 5
r 0.480667 2 3 cbr 1000 ------- 0 1.0 5.0 6 6
h 0.480667 3 6 cbr 1000 ------- 0 1.0 5.0 6 6
d 0.480671 4 6 cbr 1000 ------- 0 1.0 5.0 5 5
r 0.480671 6 5 cbr 1000 ------- 0 1.0 5.0 4 4
+ 0.5 1 2 cbr 1000 ------- 0 1.0 5.0 10 10
- 0.5 1 2 cbr 1000 ------- 0 1.0 5.0 10 10
r 0.514 1 2 cbr 1000 ------- 0 1.0 5.0 10 10
+ 0.514 2 3 cbr 1000 ------- 0 1.0 5.0 10 10
- 0.514 2 3 cbr 1000 ------- 0 1.0 5.0 10 10
r 0.520667 2 3 cbr 1000 ------- 0 1.0 5.0 7 7
h 0.520667 3 6 cbr 1000 ------- 0 1.0 5.0 7 7
+ 0.520667 3 6 cbr 1000 ------- 0 1.0 5.0 6 6
- 0.520667 3 6 cbr 1000 ------- 0 1.0 5.0 6 6
r 0.520671 6 5 cbr 1000 ------- 0 1.0 5.0 5 5
d 0.520671 4 6 cbr 1000 ------- 0 1.0 5.0 6 6
+ 0.54 1 2 cbr 1000 ------- 0 1.0 5.0 11 11
- 0.54 1 2 cbr 1000 ------- 0 1.0 5.0 11 11
r 0.554 1 2 cbr 1000 ------- 0 1.0 5.0 11 11
+ 0.554 2 3 cbr 1000 ------- 0 1.0 5.0 11 11
- 0.554 2 3 cbr 1000 ------- 0 1.0 5.0 11 11
r 0.560667 2 3 cbr 1000 ------- 0 1.0 5.0 8 8
h 0.560667 3 6 cbr 1000 ------- 0 1.0 5.0 8 8
+ 0.560667 3 6 cbr 1000 ------- 0 1.0 5.0 7 7
- 0.560667 3 6 cbr 1000 ------- 0 1.0 5.0 7 7
d 0.560671 4 6 cbr 1000 ------- 0 1.0 5.0 7 7
r 0.560671 6 5 cbr 1000 ------- 0 1.0 5.0 6 6
+ 0.58 1 2 cbr 1000 ------- 0 1.0 5.0 12 12
- 0.58 1 2 cbr 1000 ------- 0 1.0 5.0 12 12
r 0.594 1 2 cbr 1000 ------- 0 1.0 5.0 12 12
+ 0.594 2 3 cbr 1000 ------- 0 1.0 5.0 12 12
- 0.594 2 3 cbr 1000 ------- 0 1.0 5.0 12 12
r 0.600667 2 3 cbr 1000 ------- 0 1.0 5.0 9 9
h 0.600667 3 6 cbr 1000 ------- 0 1.0 5.0 9 9
+ 0.600667 3 6 cbr 1000 ------- 0 1.0 5.0 8 8
- 0.600667 3 6 cbr 1000 ------- 0 1.0 5.0 8 8
r 0.600671 6 5 cbr 1000 ------- 0 1.0 5.0 7 7
d 0.600671 4 6 cbr 1000 ------- 0 1.0 5.0 8 8
+ 0.62 1 2 cbr 1000 ------- 0 1.0 5.0 13 13
- 0.62 1 2 cbr 1000 ------- 0 1.0 5.0 13 13
r 0.634 1 2 cbr 1000 ------- 0 1.0 5.0 13 13
+ 0.634 2 3 cbr 1000 ------- 0 1.0 5.0 13 13
- 0.634 2 3 cbr 1000 ------- 0 1.0 5.0 13 13
r 0.640667 2 3 cbr 1000 ------- 0 1.0 5.0 10 10
h 0.640667 3 6 cbr 1000 ------- 0 1.0 5.0 10 10
+ 0.640667 3 6 cbr 1000 ------- 0 1.0 5.0 9 9
- 0.640667 3 6 cbr 1000 ------- 0 1.0 5.0 9 9
d 0.640671 4 6 cbr 1000 ------- 0 1.0 5.0 9 9
r 0.640671 6 5 cbr 1000 ------- 0 1.0 5.0 8 8
+ 0.66 1 2 cbr 1000 ------- 0 1.0 5.0 14 14
- 0.66 1 2 cbr 1000 ------- 0 1.0 5.0 14 14
r 0.674 1 2 cbr 1000 ------- 0 1.0 5.0 14 14
+ 0.674 2 3 cbr 1000 ------- 0 1.0 5.0 14 14
- 0.674 2 3 cbr 1000 ------- 0 1.0 5.0 14 14
r 0.680667 2 3 cbr 1000 ------- 0 1.0 5.0 11 11
h 0.680667 3 6 cbr 1000 ------- 0 1.0 5.0 11 11
+ 0.680667 3 6 cbr 1000 ------- 0 1.0 5.0 10 10
- 0.680667 3 6 cbr 1000 ------- 0 1.0 5.0 10 10
r 0.680671 6 5 cbr 1000 ------- 0 1.0 5.0 9 9
d 0.680671 4 6 cbr 1000 ------- 0 1.0 5.0 10 10
+ 0.7 1 2 cbr 1000 ------- 0 1.0 5.0 15 15
- 0.7 1 2 cbr 1000 ------- 0 1.0 5.0 15 15
r 0.714 1 2 cbr 1000 ------- 0 1.0 5.0 15 15
+ 0.714 2 3 cbr 1000 ------- 0 1.0 5.0 15 15
- 0.714 2 3 cbr 1000 ------- 0 1.0 5.0 15 15
r 0.720667 2 3 cbr 1000 ------- 0 1.0 5.0 12 12
h 0.720667 3 6 cbr 1000 ------- 0 1.0 5.0 12 12
+ 0.720667 3 6 cbr 1000 ------- 0 1.0 5.0 11 11
- 0.720667 3 6 cbr 1000 ------- 0 1.0 5.0 11 11
r 0.720671 6 5 cbr 1000 ------- 0 1.0 5.0 10 10
d 0.720671 4 6 cbr 1000 ------- 0 1.0 5.0 11 11
+ 0.74 1 2 cbr 1000 ------- 0 1.0 5.0 16 16
- 0.74 1 2 cbr 1000 ------- 0 1.0 5.0 16 16
r 0.754 1 2 cbr 1000 ------- 0 1.0 5.0 16 16
+ 0.754 2 3 cbr 1000 ------- 0 1.0 5.0 16 16
- 0.754 2 3 cbr 1000 ------- 0 1.0 5.0 16 16
r 0.760667 2 3 cbr 1000 ------- 0 1.0 5.0 13 13
h 0.760667 3 6 cbr 1000 ------- 0 1.0 5.0 13 13
+ 0.760667 3 6 cbr 1000 ------- 0 1.0 5.0 12 12
- 0.760667 3 6 cbr 1000 ------- 0 1.0 5.0 12 12
r 0.760671 6 5 cbr 1000 ------- 0 1.0 5.0 11 11
d 0.760671 4 6 cbr 1000 ------- 0 1.0 5.0 12 12
+ 0.78 1 2 cbr 1000 ------- 0 1.0 5.0 17 17
- 0.78 1 2 cbr 1000 ------- 0 1.0 5.0 17 17
r 0.794 1 2 cbr 1000 ------- 0 1.0 5.0 17 17
+ 0.794 2 3 cbr 1000 ------- 0 1.0 5.0 17 17
- 0.794 2 3 cbr 1000 ------- 0 1.0 5.0 17 17
r 0.800667 2 3 cbr 1000 ------- 0 1.0 5.0 14 14
h 0.800667 3 6 cbr 1000 ------- 0 1.0 5.0 14 14
+ 0.800667 3 6 cbr 1000 ------- 0 1.0 5.0 13 13
- 0.800667 3 6 cbr 1000 ------- 0 1.0 5.0 13 13
r 0.800671 6 5 cbr 1000 ------- 0 1.0 5.0 12 12
d 0.800671 4 6 cbr 1000 ------- 0 1.0 5.0 13 13
+ 0.82 1 2 cbr 1000 ------- 0 1.0 5.0 18 18
- 0.82 1 2 cbr 1000 ------- 0 1.0 5.0 18 18
r 0.834 1 2 cbr 1000 ------- 0 1.0 5.0 18 18
+ 0.834 2 3 cbr 1000 ------- 0 1.0 5.0 18 18
- 0.834 2 3 cbr 1000 ------- 0 1.0 5.0 18 18
r 0.840667 2 3 cbr 1000 ------- 0 1.0 5.0 15 15
h 0.840667 3 6 cbr 1000 ------- 0 1.0 5.0 15 15
+ 0.840667 3 6 cbr 1000 ------- 0 1.0 5.0 14 14
- 0.840667 3 6 cbr 1000 ------- 0 1.0 5.0 14 14
r 0.840671 6 5 cbr 1000 ------- 0 1.0 5.0 13 13
d 0.840671 4 6 cbr 1000 ------- 0 1.0 5.0 14 14
+ 0.86 1 2 cbr 1000 ------- 0 1.0 5.0 19 19
- 0.86 1 2 cbr 1000 ------- 0 1.0 5.0 19 19
r 0.874 1 2 cbr 1000 ------- 0 1.0 5.0 19 19
+ 0.874 2 3 cbr 1000 ------- 0 1.0 5.0 19 19
- 0.874 2 3 cbr 1000 ------- 0 1.0 5.0 19 19
r 0.880667 2 3 cbr 1000 ------- 0 1.0 5.0 16 16
h 0.880667 3 6 cbr 1000 ------- 0 1.0 5.0 16 16
+ 0.880667 3 6 cbr 1000 ------- 0 1.0 5.0 15 15
- 0.880667 3 6 cbr 1000 ------- 0 1.0 5.0 15 15
r 0.880671 6 5 cbr 1000 ------- 0 1.0 5.0 14 14
d 0.880671 4 6 cbr 1000 ------- 0 1.0 5.0 15 15
+ 0.9 1 2 cbr 1000 ------- 0 1.0 5.0 20 20
- 0.9 1 2 cbr 1000 ------- 0 1.0 5.0 20 20
r 0.914 1 2 cbr 1000 ------- 0 1.0 5.0 20 20
+ 0.914 2 3 cbr 1000 ------- 0 1.0 5.0 20 20
- 0.914 2 3 cbr 1000 ------- 0 1.0 5.0 20 20
r 0.920667 2 3 cbr 1000 ------- 0 1.0 5.0 17 17
h 0.920667 3 6 cbr 1000 ------- 0 1.0 5.0 17 17
+ 0.920667 3 6 cbr 1000 ------- 0 1.0 5.0 16 16
- 0.920667 3 6 cbr 1000 ------- 0 1.0 5.0 16 16
r 0.920671 6 5 cbr 1000 ------- 0 1.0 5.0 15 15
d 0.920671 4 6 cbr 1000 ------- 0 1.0 5.0 16 16
+ 0.94 1 2 cbr 1000 ------- 0 1.0 5.0 21 21
- 0.94 1 2 cbr 1000 ------- 0 1.0 5.0 21 21
r 0.954 1 2 cbr 1000 ------- 0 1.0 5.0 21 21
+ 0.954 2 3 cbr 1000 ------- 0 1.0 5.0 21 21
- 0.954 2 3 cbr 1000 ------- 0 1.0 5.0 21 21
r 0.960667 2 3 cbr 1000 ------- 0 1.0 5.0 18 18
h 0.960667 3 6 cbr 1000 ------- 0 1.0 5.0 18 18
+ 0.960667 3 6 cbr 1000 ------- 0 1.0 5.0 17 17
- 0.960667 3 6 cbr 1000 ------- 0 1.0 5.0 17 17
r 0.960671 6 5 cbr 1000 ------- 0 1.0 5.0 16 16
d 0.960671 4 6 cbr 1000 ------- 0 1.0 5.0 17 17
+ 0.98 1 2 cbr 1000 ------- 0 1.0 5.0 22 22
- 0.98 1 2 cbr 1000 ------- 0 1.0 5.0 22 22
r 0.994 1 2 cbr 1000 ------- 0 1.0 5.0 22 22
+ 0.994 2 3 cbr 1000 ------- 0 1.0 5.0 22 22
- 0.994 2 3 cbr 1000 ------- 0 1.0 5.0 22 22
+ 1 0 2 tcp 40 ------- 1 0.0 4.0 0 23
- 1 0 2 tcp 40 ------- 1 0.0 4.0 0 23
r 1.000667 2 3 cbr 1000 ------- 0 1.0 5.0 19 19
h 1.000667 3 6 cbr 1000 ------- 0 1.0 5.0 19 19
+ 1.000667 3 6 cbr 1000 ------- 0 1.0 5.0 18 18
- 1.000667 3 6 cbr 1000 ------- 0 1.0 5.0 18 18
d 1.000671 4 6 cbr 1000 ------- 0 1.0 5.0 18 18
r 1.000671 6 5 cbr 1000 ------- 0 1.0 5.0 17 17
r 1.01016 0 2 tcp 40 ------- 1 0.0 4.0 0 23
+ 1.01016 2 3 tcp 40 ------- 1 0.0 4.0 0 23
+ 1.02 1 2 cbr 1000 ------- 0 1.0 5.0 23 24
- 1.02 1 2 cbr 1000 ------- 0 1.0 5.0 23 24
- 1.020667 2 3 tcp 40 ------- 1 0.0 4.0 0 23
r 1.034 1 2 cbr 1000 ------- 0 1.0 5.0 23 24
+ 1.034 2 3 cbr 1000 ------- 0 1.0 5.0 23 24
- 1.034 2 3 cbr 1000 ------- 0 1.0 5.0 23 24
r 1.040667 2 3 cbr 1000 ------- 0 1.0 5.0 20 20
h 1.040667 3 6 cbr 1000 ------- 0 1.0 5.0 20 20
+ 1.040667 3 6 cbr 1000 ------- 0 1.0 5.0 19 19
- 1.040667 3 6 cbr 1000 ------- 0 1.0 5.0 19 19
r 1.040671 6 5 cbr 1000 ------- 0 1.0 5.0 18 18
d 1.040671 4 6 cbr 1000 ------- 0 1.0 5.0 19 19
+ 1.06 1 2 cbr 1000 ------- 0 1.0 5.0 24 25
- 1.06 1 2 cbr 1000 ------- 0 1.0 5.0 24 25
r 1.074 1 2 cbr 1000 ------- 0 1.0 5.0 24 25
+ 1.074 2 3 cbr 1000 ------- 0 1.0 5.0 24 25
- 1.074 2 3 cbr 1000 ------- 0 1.0 5.0 24 25
r 1.080667 2 3 cbr 1000 ------- 0 1.0 5.0 21 21
h 1.080667 3 6 cbr 1000 ------- 0 1.0 5.0 21 21
+ 1.080667 3 6 cbr 1000 ------- 0 1.0 5.0 20 20
- 1.080667 3 6 cbr 1000 ------- 0 1.0 5.0 20 20
r 1.080671 6 5 cbr 1000 ------- 0 1.0 5.0 19 19
d 1.080671 4 6 cbr 1000 ------- 0 1.0 5.0 20 20
+ 1.1 1 2 cbr 1000 ------- 0 1.0 5.0 25 26
- 1.1 1 2 cbr 1000 ------- 0 1.0 5.0 25 26
r 1.114 1 2 cbr 1000 ------- 0 1.0 5.0 25 26
+ 1.114 2 3 cbr 1000 ------- 0 1.0 5.0 25 26
- 1.114 2 3 cbr 1000 ------- 0 1.0 5.0 25 26
r 1.120667 2 3 cbr 1000 ------- 0 1.0 5.0 22 22
h 1.120667 3 6 cbr 1000 ------- 0 1.0 5.0 22 22
+ 1.120667 3 6 cbr 1000 ------- 0 1.0 5.0 21 21
- 1.120667 3 6 cbr 1000 ------- 0 1.0 5.0 21 21
r 1.120671 6 5 cbr 1000 ------- 0 1.0 5.0 20 20
d 1.120671 4 6 cbr 1000 ------- 0 1.0 5.0 21 21
r 1.121733 2 3 tcp 40 ------- 1 0.0 4.0 0 23
h 1.121733 3 6 tcp 40 ------- 1 0.0 4.0 0 23
+ 1.14 1 2 cbr 1000 ------- 0 1.0 5.0 26 27
- 1.14 1 2 cbr 1000 ------- 0 1.0 5.0 26 27
r 1.154 1 2 cbr 1000 ------- 0 1.0 5.0 26 27
+ 1.154 2 3 cbr 1000 ------- 0 1.0 5.0 26 27
- 1.154 2 3 cbr 1000 ------- 0 1.0 5.0 26 27
r 1.160667 2 3 cbr 1000 ------- 0 1.0 5.0 23 24
h 1.160667 3 6 cbr 1000 ------- 0 1.0 5.0 23 24
+ 1.160667 3 6 cbr 1000 ------- 0 1.0 5.0 22 22
- 1.160667 3 6 cbr 1000 ------- 0 1.0 5.0 22 22
r 1.160671 6 5 cbr 1000 ------- 0 1.0 5.0 21 21
d 1.160671 4 6 cbr 1000 ------- 0 1.0 5.0 22 22
+ 1.161733 3 6 tcp 40 ------- 1 0.0 4.0 0 23
- 1.164923 3 6 tcp 40 ------- 1 0.0 4.0 0 23
d 1.164927 5 6 tcp 40 ------- 1 0.0 4.0 0 23
+ 1.18 1 2 cbr 1000 ------- 0 1.0 5.0 27 28
- 1.18 1 2 cbr 1000 ------- 0 1.0 5.0 27 28
r 1.194 1 2 cbr 1000 ------- 0 1.0 5.0 27 28
+ 1.194 2 3 cbr 1000 ------- 0 1.0 5.0 27 28
- 1.194 2 3 cbr 1000 ------- 0 1.0 5.0 27 28
r 1.200667 2 3 cbr 1000 ------- 0 1.0 5.0 24 25
h 1.200667 3 6 cbr 1000 ------- 0 1.0 5.0 24 25
+ 1.200667 3 6 cbr 1000 ------- 0 1.0 5.0 23 24
- 1.200667 3 6 cbr 1000 ------- 0 1.0 5.0 23 24
r 1.200671 6 5 cbr 1000 ------- 0 1.0 5.0 22 22
d 1.200671 4 6 cbr 1000 ------- 0 1.0 5.0 23 24
r 1.204927 6 4 tcp 40 ------- 1 0.0 4.0 0 23
h 1.204927 4 6 ack 40 ------- 1 4.0 0.0 0 29
+ 1.22 1 2 cbr 1000 ------- 0 1.0 5.0 28 30
- 1.22 1 2 cbr 1000 ------- 0 1.0 5.0 28 30
r 1.234 1 2 cbr 1000 ------- 0 1.0 5.0 28 30
+ 1.234 2 3 cbr 1000 ------- 0 1.0 5.0 28 30
- 1.234 2 3 cbr 1000 ------- 0 1.0 5.0 28 30
r 1.240667 2 3 cbr 1000 ------- 0 1.0 5.0 25 26
h 1.240667 3 6 cbr 1000 ------- 0 1.0 5.0 25 26
+ 1.240667 3 6 cbr 1000 ------- 0 1.0 5.0 24 25
- 1.240667 3 6 cbr 1000 ------- 0 1.0 5.0 24 25
r 1.240671 6 5 cbr 1000 ------- 0 1.0 5.0 23 24
d 1.240671 4 6 cbr 1000 ------- 0 1.0 5.0 24 25
+ 1.244927 4 6 ack 40 ------- 1 4.0 0.0 0 29
- 1.244927 4 6 ack 40 ------- 1 4.0 0.0 0 29
d 1.244931 5 6 ack 40 ------- 1 4.0 0.0 0 29
+ 1.26 1 2 cbr 1000 ------- 0 1.0 5.0 29 31
- 1.26 1 2 cbr 1000 ------- 0 1.0 5.0 29 31
r 1.274 1 2 cbr 1000 ------- 0 1.0 5.0 29 31
+ 1.274 2 3 cbr 1000 ------- 0 1.0 5.0 29 31
- 1.274 2 3 cbr 1000 ------- 0 1.0 5.0 29 31
r 1.280667 2 3 cbr 1000 ------- 0 1.0 5.0 26 27
h 1.280667 3 6 cbr 1000 ------- 0 1.0 5.0 26 27
+ 1.280667 3 6 cbr 1000 ------- 0 1.0 5.0 25 26
- 1.280667 3 6 cbr 1000 ------- 0 1.0 5.0 25 26
r 1.280671 6 5 cbr 1000 ------- 0 1.0 5.0 24 25
d 1.280671 4 6 cbr 1000 ------- 0 1.0 5.0 25 26
r 1.284931 6 3 ack 40 ------- 1 4.0 0.0 0 29
+ 1.284931 3 2 ack 40 ------- 1 4.0 0.0 0 29
- 1.284931 3 2 ack 40 ------- 1 4.0 0.0 0 29
+ 1.3 1 2 cbr 1000 ------- 0 1.0 5.0 30 32
- 1.3 1 2 cbr 1000 ------- 0 1.0 5.0 30 32
r 1.314 1 2 cbr 1000 ------- 0 1.0 5.0 30 32
+ 1.314 2 3 cbr 1000 ------- 0 1.0 5.0 30 32
- 1.314 2 3 cbr 1000 ------- 0 1.0 5.0 30 32
r 1.320667 2 3 cbr 1000 ------- 0 1.0 5.0 27 28
h 1.320667 3 6 cbr 1000 ------- 0 1.0 5.0 27 28
+ 1.320667 3 6 cbr 1000 ------- 0 1.0 5.0 26 27
- 1.320667 3 6 cbr 1000 ------- 0 1.0 5.0 26 27
r 1.320671 6 5 cbr 1000 ------- 0 1.0 5.0 25 26
d 1.320671 4 6 cbr 1000 ------- 0 1.0 5.0 26 27
+ 1.34 1 2 cbr 1000 ------- 0 1.0 5.0 31 33
- 1.34 1 2 cbr 1000 ------- 0 1.0 5.0 31 33
r 1.354 1 2 cbr 1000 ------- 0 1.0 5.0 31 33
+ 1.354 2 3 cbr 1000 ------- 0 1.0 5.0 31 33
- 1.354 2 3 cbr 1000 ------- 0 1.0 5.0 31 33
r 1.360667 2 3 cbr 1000 ------- 0 1.0 5.0 28 30
h 1.360667 3 6 cbr 1000 ------- 0 1.0 5.0 28 30
+ 1.360667 3 6 cbr 1000 ------- 0 1.0 5.0 27 28
- 1.360667 3 6 cbr 1000 ------- 0 1.0 5.0 27 28
r 1.360671 6 5 cbr 1000 ------- 0 1.0 5.0 26 27
d 1.360671 4 6 cbr 1000 ------- 0 1.0 5.0 27 28
+ 1.38 1 2 cbr 1000 ------- 0 1.0 5.0 32 34
- 1.38 1 2 cbr 1000 ------- 0 1.0 5.0 32 34
r 1.385997 3 2 ack 40 ------- 1 4.0 0.0 0 29
+ 1.385997 2 0 ack 40 ------- 1 4.0 0.0 0 29
- 1.385997 2 0 ack 40 ------- 1 4.0 0.0 0 29
r 1.394 1 2 cbr 1000 ------- 0 1.0 5.0 32 34
+ 1.394 2 3 cbr 1000 ------- 0 1.0 5.0 32 34
- 1.394 2 3 cbr 1000 ------- 0 1.0 5.0 32 34
r 1.396157 2 0 ack 40 ------- 1 4.0 0.0 0 29
+ 1.396157 0 2 tcp 1040 ------- 1 0.0 4.0 1 35
- 1.396157 0 2 tcp 1040 ------- 1 0.0 4.0 1 35
+ 1.396157 0 2 tcp 1040 ------- 1 0.0 4.0 2 36
- 1.400317 0 2 tcp 1040 ------- 1 0.0 4.0 2 36
r 1.400667 2 3 cbr 1000 ------- 0 1.0 5.0 29 31
h 1.400667 3 6 cbr 1000 ------- 0 1.0 5.0 29 31
+ 1.400667 3 6 cbr 1000 ------- 0 1.0 5.0 28 30
- 1.400667 3 6 cbr 1000 ------- 0 1.0 5.0 28 30
r 1.400671 6 5 cbr 1000 ------- 0 1.0 5.0 27 28
d 1.400671 4 6 cbr 1000 ------- 0 1.0 5.0 28 30
r 1.410317 0 2 tcp 1040 ------- 1 0.0 4.0 1 35
+ 1.410317 2 3 tcp 1040 ------- 1 0.0 4.0 1 35
r 1.414477 0 2 tcp 1040 ------- 1 0.0 4.0 2 36
+ 1.414477 2 3 tcp 1040 ------- 1 0.0 4.0 2 36
+ 1.42 1 2 cbr 1000 ------- 0 1.0 5.0 33 37
- 1.42 1 2 cbr 1000 ------- 0 1.0 5.0 33 37
- 1.420667 2 3 tcp 1040 ------- 1 0.0 4.0 1 35
r 1.434 1 2 cbr 1000 ------- 0 1.0 5.0 33 37
+ 1.434 2 3 cbr 1000 ------- 0 1.0 5.0 33 37
r 1.440667 2 3 cbr 1000 ------- 0 1.0 5.0 30 32
h 1.440667 3 6 cbr 1000 ------- 0 1.0 5.0 30 32
+ 1.440667 3 6 cbr 1000 ------- 0 1.0 5.0 29 31
- 1.440667 3 6 cbr 1000 ------- 0 1.0 5.0 29 31
r 1.440671 6 5 cbr 1000 ------- 0 1.0 5.0 28 30
d 1.440671 4 6 cbr 1000 ------- 0 1.0 5.0 29 31
- 1.4484 2 3 tcp 1040 ------- 1 0.0 4.0 2 36
+ 1.46 1 2 cbr 1000 ------- 0 1.0 5.0 34 38
- 1.46 1 2 cbr 1000 ------- 0 1.0 5.0 34 38
r 1.474 1 2 cbr 1000 ------- 0 1.0 5.0 34 38
+ 1.474 2 3 cbr 1000 ------- 0 1.0 5.0 34 38
- 1.476133 2 3 cbr 1000 ------- 0 1.0 5.0 33 37
r 1.480667 2 3 cbr 1000 ------- 0 1.0 5.0 31 33
h 1.480667 3 6 cbr 1000 ------- 0 1.0 5.0 31 33
+ 1.480667 3 6 cbr 1000 ------- 0 1.0 5.0 30 32
- 1.480667 3 6 cbr 1000 ------- 0 1.0 5.0 30 32
r 1.480671 6 5 cbr 1000 ------- 0 1.0 5.0 29 31
d 1.480671 4 6 cbr 1000 ------- 0 1.0 5.0 30 32
+ 1.5 1 2 cbr 1000 ------- 0 1.0 5.0 35 39
- 1.5 1 2 cbr 1000 ------- 0 1.0 5.0 35 39
- 1.5028 2 3 cbr 1000 ------- 0 1.0 5.0 34 38
r 1.514 1 2 cbr 1000 ------- 0 1.0 5.0 35 39
+ 1.514 2 3 cbr 1000 ------- 0 1.0 5.0 35 39
r 1.520667 2 3 cbr 1000 ------- 0 1.0 5.0 32 34
h 1.520667 3 6 cbr 1000 ------- 0 1.0 5.0 32 34
+ 1.520667 3 6 cbr 1000 ------- 0 1.0 5.0 31 33
- 1.520667 3 6 cbr 1000 ------- 0 1.0 5.0 31 33
r 1.520671 6 5 cbr 1000 ------- 0 1.0 5.0 30 32
d 1.520671 4 6 cbr 1000 ------- 0 1.0 5.0 31 33
- 1.529467 2 3 cbr 1000 ------- 0 1.0 5.0 35 39
+ 1.54 1 2 cbr 1000 ------- 0 1.0 5.0 36 40
- 1.54 1 2 cbr 1000 ------- 0 1.0 5.0 36 40
r 1.5484 2 3 tcp 1040 ------- 1 0.0 4.0 1 35
h 1.5484 3 6 tcp 1040 ------- 1 0.0 4.0 1 35
r 1.554 1 2 cbr 1000 ------- 0 1.0 5.0 36 40
+ 1.554 2 3 cbr 1000 ------- 0 1.0 5.0 36 40
- 1.556133 2 3 cbr 1000 ------- 0 1.0 5.0 36 40
+ 1.560667 3 6 cbr 1000 ------- 0 1.0 5.0 32 34
- 1.560667 3 6 cbr 1000 ------- 0 1.0 5.0 32 34
r 1.560671 6 5 cbr 1000 ------- 0 1.0 5.0 31 33
d 1.560671 4 6 cbr 1000 ------- 0 1.0 5.0 32 34
r 1.576133 2 3 tcp 1040 ------- 1 0.0 4.0 2 36
h 1.576133 3 6 tcp 1040 ------- 1 0.0 4.0 2 36
+ 1.58 1 2 cbr 1000 ------- 0 1.0 5.0 37 41
- 1.58 1 2 cbr 1000 ------- 0 1.0 5.0 37 41
+ 1.5884 3 6 tcp 1040 ------- 1 0.0 4.0 1 35
- 1.5884 3 6 tcp 1040 ------- 1 0.0 4.0 1 35
d 1.588404 5 6 tcp 1040 ------- 1 0.0 4.0 1 35
r 1.594 1 2 cbr 1000 ------- 0 1.0 5.0 37 41
+ 1.594 2 3 cbr 1000 ------- 0 1.0 5.0 37 41
- 1.594 2 3 cbr 1000 ------- 0 1.0 5.0 37 41
r 1.600671 6 5 cbr 1000 ------- 0 1.0 5.0 32 34
r 1.6028 2 3 cbr 1000 ------- 0 1.0 5.0 33 37
h 1.6028 3 6 cbr 1000 ------- 0 1.0 5.0 33 37
+ 1.616133 3 6 tcp 1040 ------- 1 0.0 4.0 2 36
- 1.616133 3 6 tcp 1040 ------- 1 0.0 4.0 2 36
d 1.616137 5 6 tcp 1040 ------- 1 0.0 4.0 2 36
+ 1.62 1 2 cbr 1000 ------- 0 1.0 5.0 38 42
- 1.62 1 2 cbr 1000 ------- 0 1.0 5.0 38 42
r 1.628404 6 4 tcp 1040 ------- 1 0.0 4.0 1 35
h 1.628404 4 6 ack 40 ------- 1 4.0 0.0 1 43
r 1.629467 2 3 cbr 1000 ------- 0 1.0 5.0 34 38
h 1.629467 3 6 cbr 1000 ------- 0 1.0 5.0 34 38
r 1.634 1 2 cbr 1000 ------- 0 1.0 5.0 38 42
+ 1.634 2 3 cbr 1000 ------- 0 1.0 5.0 38 42
- 1.634 2 3 cbr 1000 ------- 0 1.0 5.0 38 42
+ 1.6428 3 6 cbr 1000 ------- 0 1.0 5.0 33 37
- 1.6428 3 6 cbr 1000 ------- 0 1.0 5.0 33 37
d 1.642804 4 6 cbr 1000 ------- 0 1.0 5.0 33 37
r 1.656133 2 3 cbr 1000 ------- 0 1.0 5.0 35 39
h 1.656133 3 6 cbr 1000 ------- 0 1.0 5.0 35 39
r 1.656137 6 4 tcp 1040 ------- 1 0.0 4.0 2 36
h 1.656137 4 6 ack 40 ------- 1 4.0 0.0 2 44
+ 1.66 1 2 cbr 1000 ------- 0 1.0 5.0 39 45
- 1.66 1 2 cbr 1000 ------- 0 1.0 5.0 39 45
+ 1.668404 4 6 ack 40 ------- 1 4.0 0.0 1 43
- 1.668404 4 6 ack 40 ------- 1 4.0 0.0 1 43
d 1.668408 5 6 ack 40 ------- 1 4.0 0.0 1 43
+ 1.669467 3 6 cbr 1000 ------- 0 1.0 5.0 34 38
- 1.669467 3 6 cbr 1000 ------- 0 1.0 5.0 34 38
d 1.669471 4 6 cbr 1000 ------- 0 1.0 5.0 34 38
r 1.674 1 2 cbr 1000 ------- 0 1.0 5.0 39 45
d 1.674 2 3 cbr 1000 ------- 0 1.0 5.0 39 45
r 1.6828 2 3 cbr 1000 ------- 0 1.0 5.0 36 40
h 1.6828 3 6 cbr 1000 ------- 0 1.0 5.0 36 40
r 1.682804 6 5 cbr 1000 ------- 0 1.0 5.0 33 37
+ 1.696133 3 6 cbr 1000 ------- 0 1.0 5.0 35 39
- 1.696133 3 6 cbr 1000 ------- 0 1.0 5.0 35 39
+ 1.696137 4 6 ack 40 ------- 1 4.0 0.0 2 44
- 1.696137 4 6 ack 40 ------- 1 4.0 0.0 2 44
d 1.696137 4 6 cbr 1000 ------- 0 1.0 5.0 35 39
d 1.696141 5 6 ack 40 ------- 1 4.0 0.0 2 44
+ 1.7 1 2 cbr 1000 ------- 0 1.0 5.0 40 46
- 1.7 1 2 cbr 1000 ------- 0 1.0 5.0 40 46
r 1.708408 6 3 ack 40 ------- 1 4.0 0.0 1 43
+ 1.708408 3 2 ack 40 ------- 1 4.0 0.0 1 43
- 1.708408 3 2 ack 40 ------- 1 4.0 0.0 1 43
r 1.709471 6 5 cbr 1000 ------- 0 1.0 5.0 34 38
r 1.714 1 2 cbr 1000 ------- 0 1.0 5.0 40 46
+ 1.714 2 3 cbr 1000 ------- 0 1.0 5.0 40 46
- 1.714 2 3 cbr 1000 ------- 0 1.0 5.0 40 46
r 1.720667 2 3 cbr 1000 ------- 0 1.0 5.0 37 41
h 1.720667 3 6 cbr 1000 ------- 0 1.0 5.0 37 41
+ 1.7228 3 6 cbr 1000 ------- 0 1.0 5.0 36 40
- 1.7228 3 6 cbr 1000 ------- 0 1.0 5.0 36 40
d 1.722804 4 6 cbr 1000 ------- 0 1.0 5.0 36 40
r 1.736137 6 5 cbr 1000 ------- 0 1.0 5.0 35 39
r 1.736141 6 3 ack 40 ------- 1 4.0 0.0 2 44
+ 1.736141 3 2 ack 40 ------- 1 4.0 0.0 2 44
- 1.736141 3 2 ack 40 ------- 1 4.0 0.0 2 44
+ 1.74 1 2 cbr 1000 ------- 0 1.0 5.0 41 47
- 1.74 1 2 cbr 1000 ------- 0 1.0 5.0 41 47
r 1.754 1 2 cbr 1000 ------- 0 1.0 5.0 41 47
+ 1.754 2 3 cbr 1000 ------- 0 1.0 5.0 41 47
- 1.754 2 3 cbr 1000 ------- 0 1.0 5.0 41 47
r 1.760667 2 3 cbr 1000 ------- 0 1.0 5.0 38 42
h 1.760667 3 6 cbr 1000 ------- 0 1.0 5.0 38 42
+ 1.760667 3 6 cbr 1000 ------- 0 1.0 5.0 37 41
- 1.760667 3 6 cbr 1000 ------- 0 1.0 5.0 37 41
d 1.760671 4 6 cbr 1000 ------- 0 1.0 5.0 37 41
r 1.762804 6 5 cbr 1000 ------- 0 1.0 5.0 36 40
+ 1.78 1 2 cbr 1000 ------- 0 1.0 5.0 42 48
- 1.78 1 2 cbr 1000 ------- 0 1.0 5.0 42 48
r 1.794 1 2 cbr 1000 ------- 0 1.0 5.0 42 48
+ 1.794 2 3 cbr 1000 ------- 0 1.0 5.0 42 48
- 1.794 2 3 cbr 1000 ------- 0 1.0 5.0 42 48
+ 1.800667 3 6 cbr 1000 ------- 0 1.0 5.0 38 42
- 1.800667 3 6 cbr 1000 ------- 0 1.0 5.0 38 42
r 1.800671 6 5 cbr 1000 ------- 0 1.0 5.0 37 41
d 1.800671 4 6 cbr 1000 ------- 0 1.0 5.0 38 42
r 1.809475 3 2 ack 40 ------- 1 4.0 0.0 1 43
+ 1.809475 2 0 ack 40 ------- 1 4.0 0.0 1 43
- 1.809475 2 0 ack 40 ------- 1 4.0 0.0 1 43
r 1.819635 2 0 ack 40 ------- 1 4.0 0.0 1 43
+ 1.819635 0 2 tcp 1040 ------- 1 0.0 4.0 3 49
- 1.819635 0 2 tcp 1040 ------- 1 0.0 4.0 3 49
+ 1.819635 0 2 tcp 1040 ------- 1 0.0 4.0 4 50
+ 1.82 1 2 cbr 1000 ------- 0 1.0 5.0 43 51
- 1.82 1 2 cbr 1000 ------- 0 1.0 5.0 43 51
- 1.823795 0 2 tcp 1040 ------- 1 0.0 4.0 4 50
r 1.833795 0 2 tcp 1040 ------- 1 0.0 4.0 3 49
+ 1.833795 2 3 tcp 1040 ------- 1 0.0 4.0 3 49
- 1.833795 2 3 tcp 1040 ------- 1 0.0 4.0 3 49
r 1.834 1 2 cbr 1000 ------- 0 1.0 5.0 43 51
+ 1.834 2 3 cbr 1000 ------- 0 1.0 5.0 43 51
r 1.837208 3 2 ack 40 ------- 1 4.0 0.0 2 44
+ 1.837208 2 0 ack 40 ------- 1 4.0 0.0 2 44
- 1.837208 2 0 ack 40 ------- 1 4.0 0.0 2 44
r 1.837955 0 2 tcp 1040 ------- 1 0.0 4.0 4 50
+ 1.837955 2 3 tcp 1040 ------- 1 0.0 4.0 4 50
r 1.840667 2 3 cbr 1000 ------- 0 1.0 5.0 40 46
h 1.840667 3 6 cbr 1000 ------- 0 1.0 5.0 40 46
r 1.840671 6 5 cbr 1000 ------- 0 1.0 5.0 38 42
r 1.847368 2 0 ack 40 ------- 1 4.0 0.0 2 44
+ 1.847368 0 2 tcp 1040 ------- 1 0.0 4.0 5 52
- 1.847368 0 2 tcp 1040 ------- 1 0.0 4.0 5 52
+ 1.847368 0 2 tcp 1040 ------- 1 0.0 4.0 6 53
- 1.851528 0 2 tcp 1040 ------- 1 0.0 4.0 6 53
+ 1.86 1 2 cbr 1000 ------- 0 1.0 5.0 44 54
- 1.86 1 2 cbr 1000 ------- 0 1.0 5.0 44 54
- 1.861528 2 3 cbr 1000 ------- 0 1.0 5.0 43 51
r 1.861528 0 2 tcp 1040 ------- 1 0.0 4.0 5 52
+ 1.861528 2 3 tcp 1040 ------- 1 0.0 4.0 5 52
r 1.865688 0 2 tcp 1040 ------- 1 0.0 4.0 6 53
+ 1.865688 2 3 tcp 1040 ------- 1 0.0 4.0 6 53
r 1.874 1 2 cbr 1000 ------- 0 1.0 5.0 44 54
+ 1.874 2 3 cbr 1000 ------- 0 1.0 5.0 44 54
r 1.880667 2 3 cbr 1000 ------- 0 1.0 5.0 41 47
h 1.880667 3 6 cbr 1000 ------- 0 1.0 5.0 41 47
+ 1.880667 3 6 cbr 1000 ------- 0 1.0 5.0 40 46
- 1.880667 3 6 cbr 1000 ------- 0 1.0 5.0 40 46
d 1.880671 4 6 cbr 1000 ------- 0 1.0 5.0 40 46
- 1.888195 2 3 tcp 1040 ------- 1 0.0 4.0 4 50
+ 1.9 1 2 cbr 1000 ------- 0 1.0 5.0 45 55
- 1.9 1 2 cbr 1000 ------- 0 1.0 5.0 45 55
r 1.914 1 2 cbr 1000 ------- 0 1.0 5.0 45 55
+ 1.914 2 3 cbr 1000 ------- 0 1.0 5.0 45 55
- 1.915928 2 3 tcp 1040 ------- 1 0.0 4.0 5 52
r 1.920667 2 3 cbr 1000 ------- 0 1.0 5.0 42 48
h 1.920667 3 6 cbr 1000 ------- 0 1.0 5.0 42 48
+ 1.920667 3 6 cbr 1000 ------- 0 1.0 5.0 41 47
- 1.920667 3 6 cbr 1000 ------- 0 1.0 5.0 41 47
r 1.920671 6 5 cbr 1000 ------- 0 1.0 5.0 40 46
d 1.920671 4 6 cbr 1000 ------- 0 1.0 5.0 41 47
+ 1.94 1 2 cbr 1000 ------- 0 1.0 5.0 46 56
- 1.94 1 2 cbr 1000 ------- 0 1.0 5.0 46 56
- 1.943661 2 3 tcp 1040 ------- 1 0.0 4.0 6 53
r 1.954 1 2 cbr 1000 ------- 0 1.0 5.0 46 56
+ 1.954 2 3 cbr 1000 ------- 0 1.0 5.0 46 56
+ 1.960667 3 6 cbr 1000 ------- 0 1.0 5.0 42 48
- 1.960667 3 6 cbr 1000 ------- 0 1.0 5.0 42 48
r 1.960671 6 5 cbr 1000 ------- 0 1.0 5.0 41 47
d 1.960671 4 6 cbr 1000 ------- 0 1.0 5.0 42 48
r 1.961528 2 3 tcp 1040 ------- 1 0.0 4.0 3 49
h 1.961528 3 6 tcp 1040 ------- 1 0.0 4.0 3 49
- 1.971395 2 3 cbr 1000 ------- 0 1.0 5.0 44 54
+ 1.98 1 2 cbr 1000 ------- 0 1.0 5.0 47 57
- 1.98 1 2 cbr 1000 ------- 0 1.0 5.0 47 57
r 1.988195 2 3 cbr 1000 ------- 0 1.0 5.0 43 51
h 1.988195 3 6 cbr 1000 ------- 0 1.0 5.0 43 51
r 1.994 1 2 cbr 1000 ------- 0 1.0 5.0 47 57
+ 1.994 2 3 cbr 1000 ------- 0 1.0 5.0 47 57
- 1.998061 2 3 cbr 1000 ------- 0 1.0 5.0 45 55
r 2.000671 6 5 cbr 1000 ------- 0 1.0 5.0 42 48
+ 2.001528 3 6 tcp 1040 ------- 1 0.0 4.0 3 49
- 2.001528 3 6 tcp 1040 ------- 1 0.0 4.0 3 49
d 2.001532 5 6 tcp 1040 ------- 1 0.0 4.0 3 49
r 2.015928 2 3 tcp 1040 ------- 1 0.0 4.0 4 50
h 2.015928 3 6 tcp 1040 ------- 1 0.0 4.0 4 50
+ 2.02 1 2 cbr 1000 ------- 0 1.0 5.0 48 58
- 2.02 1 2 cbr 1000 ------- 0 1.0 5.0 48 58
- 2.024728 2 3 cbr 1000 ------- 0 1.0 5.0 46 56
+ 2.028195 3 6 cbr 1000 ------- 0 1.0 5.0 43 51
- 2.028195 3 6 cbr 1000 ------- 0 1.0 5.0 43 51
d 2.028199 4 6 cbr 1000 ------- 0 1.0 5.0 43 51
r 2.034 1 2 cbr 1000 ------- 0 1.0 5.0 48 58
+ 2.034 2 3 cbr 1000 ------- 0 1.0 5.0 48 58
r 2.041532 6 4 tcp 1040 ------- 1 0.0 4.0 3 49
h 2.041532 4 6 ack 40 ------- 1 4.0 0.0 3 59
r 2.043661 2 3 tcp 1040 ------- 1 0.0 4.0 5 52
h 2.043661 3 6 tcp 1040 ------- 1 0.0 4.0 5 52
- 2.051395 2 3 cbr 1000 ------- 0 1.0 5.0 47 57
+ 2.055928 3 6 tcp 1040 ------- 1 0.0 4.0 4 50
- 2.055928 3 6 tcp 1040 ------- 1 0.0 4.0 4 50
d 2.055932 5 6 tcp 1040 ------- 1 0.0 4.0 4 50
+ 2.06 1 2 cbr 1000 ------- 0 1.0 5.0 49 60
- 2.06 1 2 cbr 1000 ------- 0 1.0 5.0 49 60
r 2.068199 6 5 cbr 1000 ------- 0 1.0 5.0 43 51
r 2.071395 2 3 tcp 1040 ------- 1 0.0 4.0 6 53
h 2.071395 3 6 tcp 1040 ------- 1 0.0 4.0 6 53
r 2.074 1 2 cbr 1000 ------- 0 1.0 5.0 49 60
+ 2.074 2 3 cbr 1000 ------- 0 1.0 5.0 49 60
- 2.078061 2 3 cbr 1000 ------- 0 1.0 5.0 48 58
+ 2.081532 4 6 ack 40 ------- 1 4.0 0.0 3 59
- 2.081532 4 6 ack 40 ------- 1 4.0 0.0 3 59
d 2.081536 5 6 ack 40 ------- 1 4.0 0.0 3 59
+ 2.083661 3 6 tcp 1040 ------- 1 0.0 4.0 5 52
- 2.083661 3 6 tcp 1040 ------- 1 0.0 4.0 5 52
d 2.083665 5 6 tcp 1040 ------- 1 0.0 4.0 5 52
r 2.095932 6 4 tcp 1040 ------- 1 0.0 4.0 4 50
h 2.095932 4 6 ack 40 ------- 1 4.0 0.0 4 61
r 2.098061 2 3 cbr 1000 ------- 0 1.0 5.0 44 54
h 2.098061 3 6 cbr 1000 ------- 0 1.0 5.0 44 54
+ 2.1 1 2 cbr 1000 ------- 0 1.0 5.0 50 62
- 2.1 1 2 cbr 1000 ------- 0 1.0 5.0 50 62
- 2.104728 2 3 cbr 1000 ------- 0 1.0 5.0 49 60
+ 2.111395 3 6 tcp 1040 ------- 1 0.0 4.0 6 53
- 2.111395 3 6 tcp 1040 ------- 1 0.0 4.0 6 53
d 2.111399 5 6 tcp 1040 ------- 1 0.0 4.0 6 53
r 2.114 1 2 cbr 1000 ------- 0 1.0 5.0 50 62
+ 2.114 2 3 cbr 1000 ------- 0 1.0 5.0 50 62
r 2.121536 6 3 ack 40 ------- 1 4.0 0.0 3 59
+ 2.121536 3 2 ack 40 ------- 1 4.0 0.0 3 59
- 2.121536 3 2 ack 40 ------- 1 4.0 0.0 3 59
r 2.123665 6 4 tcp 1040 ------- 1 0.0 4.0 5 52
h 2.123665 4 6 ack 40 ------- 1 4.0 0.0 5 63
r 2.124728 2 3 cbr 1000 ------- 0 1.0 5.0 45 55
h 2.124728 3 6 cbr 1000 ------- 0 1.0 5.0 45 55
- 2.131395 2 3 cbr 1000 ------- 0 1.0 5.0 50 62
+ 2.135932 4 6 ack 40 ------- 1 4.0 0.0 4 61
- 2.135932 4 6 ack 40 ------- 1 4.0 0.0 4 61
d 2.135936 5 6 ack 40 ------- 1 4.0 0.0 4 61
+ 2.138061 3 6 cbr 1000 ------- 0 1.0 5.0 44 54
- 2.138061 3 6 cbr 1000 ------- 0 1.0 5.0 44 54
d 2.138065 4 6 cbr 1000 ------- 0 1.0 5.0 44 54
+ 2.14 1 2 cbr 1000 ------- 0 1.0 5.0 51 64
- 2.14 1 2 cbr 1000 ------- 0 1.0 5.0 51 64
r 2.151395 2 3 cbr 1000 ------- 0 1.0 5.0 46 56
h 2.151395 3 6 cbr 1000 ------- 0 1.0 5.0 46 56
r 2.151399 6 4 tcp 1040 ------- 1 0.0 4.0 6 53
h 2.151399 4 6 ack 40 ------- 1 4.0 0.0 6 65
r 2.154 1 2 cbr 1000 ------- 0 1.0 5.0 51 64
+ 2.154 2 3 cbr 1000 ------- 0 1.0 5.0 51 64
- 2.158061 2 3 cbr 1000 ------- 0 1.0 5.0 51 64
+ 2.163665 4 6 ack 40 ------- 1 4.0 0.0 5 63
- 2.163665 4 6 ack 40 ------- 1 4.0 0.0 5 63
d 2.163669 5 6 ack 40 ------- 1 4.0 0.0 5 63
+ 2.164728 3 6 cbr 1000 ------- 0 1.0 5.0 45 55
- 2.164728 3 6 cbr 1000 ------- 0 1.0 5.0 45 55
d 2.164732 4 6 cbr 1000 ------- 0 1.0 5.0 45 55
r 2.175936 6 3 ack 40 ------- 1 4.0 0.0 4 61
+ 2.175936 3 2 ack 40 ------- 1 4.0 0.0 4 61
- 2.175936 3 2 ack 40 ------- 1 4.0 0.0 4 61
r 2.178061 2 3 cbr 1000 ------- 0 1.0 5.0 47 57
h 2.178061 3 6 cbr 1000 ------- 0 1.0 5.0 47 57